+ 0.5 0 1 cbr 1000 ------- 0 0.0 7.0 0 0
- 0.5 0 1 cbr 1000 ------- 0 0.0 7.0 0 0
+ 0.5 0 1 cbr 1000 ------- 0 0.0 7.0 1 1
+ 0.5 0 1 cbr 48 ------- 0 0.0 7.0 2 2
- 0.5008 0 1 cbr 1000 ------- 0 0.0 7.0 1 1
- 0.5016 0 1 cbr 48 ------- 0 0.0 7.0 2 2
r 0.5108 0 1 cbr 1000 ------- 0 0.0 7.0 0 0
+ 0.5108 1 2 cbr 1000 ------- 0 0.0 7.0 0 0
- 0.5108 1 2 cbr 1000 ------- 0 0.0 7.0 0 0
r 0.5116 0 1 cbr 1000 ------- 0 0.0 7.0 1 1
+ 0.5116 1 2 cbr 1000 ------- 0 0.0 7.0 1 1
- 0.5116 1 2 cbr 1000 ------- 0 0.0 7.0 1 1
r 0.511638 0 1 cbr 48 ------- 0 0.0 7.0 2 2
+ 0.511638 1 2 cbr 48 ------- 0 0.0 7.0 2 2
- 0.5124 1 2 cbr 48 ------- 0 0.0 7.0 2 2
r 0.5216 1 2 cbr 1000 ------- 0 0.0 7.0 0 0
+ 0.5216 2 5 cbr 1000 ------- 0 0.0 7.0 0 0
- 0.5216 2 5 cbr 1000 ------- 0 0.0 7.0 0 0
r 0.5224 1 2 cbr 1000 ------- 0 0.0 7.0 1 1
+ 0.5224 2 5 cbr 1000 ------- 0 0.0 7.0 1 1
- 0.5224 2 5 cbr 1000 ------- 0 0.0 7.0 1 1
r 0.522438 1 2 cbr 48 ------- 0 0.0 7.0 2 2
+ 0.522438 2 5 cbr 48 ------- 0 0.0 7.0 2 2
- 0.5232 2 5 cbr 48 ------- 0 0.0 7.0 2 2
r 0.5324 2 5 cbr 1000 ------- 0 0.0 7.0 0 0
+ 0.5324 5 7 cbr 1000 ------- 0 0.0 7.0 0 0
- 0.5324 5 7 cbr 1000 ------- 0 0.0 7.0 0 0
r 0.5332 2 5 cbr 1000 ------- 0 0.0 7.0 1 1
+ 0.5332 5 7 cbr 1000 ------- 0 0.0 7.0 1 1
- 0.5332 5 7 cbr 1000 ------- 0 0.0 7.0 1 1
r 0.533238 2 5 cbr 48 ------- 0 0.0 7.0 2 2
+ 0.533238 5 7 cbr 48 ------- 0 0.0 7.0 2 2
- 0.534 5 7 cbr 48 ------- 0 0.0 7.0 2 2
r 0.5432 5 7 cbr 1000 ------- 0 0.0 7.0 0 0
r 0.544 5 7 cbr 1000 ------- 0 0.0 7.0 1 1
r 0.544038 5 7 cbr 48 ------- 0 0.0 7.0 2 2
