V -t * -v 1.0a5 -a 0
A -t * -n 1 -p 0 -o 0x7fffffff -c 30 -a 1
A -t * -h 1 -m 1073741823 -s 0
c -t * -i 1 -n Pink
n -t * -a 0 -s 0 -S UP -v circle -c black -i black
n -t * -a 1 -s 1 -S UP -v circle -c black -i black
l -t * -s 0 -d 1 -S UP -r 3200000 -D 0.23900000000000002 -c black
+ -t 0.1 -s 0 -d 1 -p cbr -e 1000 -c 1 -i 0 -a 1 -x {0.0 1.0 0 ------- null}
- -t 0.1 -s 0 -d 1 -p cbr -e 1000 -c 1 -i 0 -a 1 -x {0.0 1.0 0 ------- null}
h -t 0.1 -s 0 -d 1 -p cbr -e 1000 -c 1 -i 0 -a 1 -x {0.0 1.0 -1 ------- null}
+ -t 0.1 -s 0 -d 1 -p cbr -e 1000 -c 1 -i 1 -a 1 -x {0.0 1.0 1 ------- null}
+ -t 0.1 -s 0 -d 1 -p cbr -e 1000 -c 1 -i 2 -a 1 -x {0.0 1.0 2 ------- null}
+ -t 0.1 -s 0 -d 1 -p cbr -e 1000 -c 1 -i 3 -a 1 -x {0.0 1.0 3 ------- null}
+ -t 0.1 -s 0 -d 1 -p cbr -e 1000 -c 1 -i 4 -a 1 -x {0.0 1.0 4 ------- null}
+ -t 0.1 -s 0 -d 1 -p cbr -e 1000 -c 1 -i 5 -a 1 -x {0.0 1.0 5 ------- null}
+ -t 0.1 -s 0 -d 1 -p cbr -e 1000 -c 1 -i 6 -a 1 -x {0.0 1.0 6 ------- null}
+ -t 0.1 -s 0 -d 1 -p cbr -e 1000 -c 1 -i 7 -a 1 -x {0.0 1.0 7 ------- null}
+ -t 0.1 -s 0 -d 1 -p cbr -e 1000 -c 1 -i 8 -a 1 -x {0.0 1.0 8 ------- null}
+ -t 0.1 -s 0 -d 1 -p cbr -e 1000 -c 1 -i 9 -a 1 -x {0.0 1.0 9 ------- null}
+ -t 0.1 -s 0 -d 1 -p cbr -e 1000 -c 1 -i 10 -a 1 -x {0.0 1.0 10 ------- null}
+ -t 0.1 -s 0 -d 1 -p cbr -e 1000 -c 1 -i 11 -a 1 -x {0.0 1.0 11 ------- null}
+ -t 0.1 -s 0 -d 1 -p cbr -e 1000 -c 1 -i 12 -a 1 -x {0.0 1.0 12 ------- null}
+ -t 0.1 -s 0 -d 1 -p cbr -e 1000 -c 1 -i 13 -a 1 -x {0.0 1.0 13 ------- null}
+ -t 0.1 -s 0 -d 1 -p cbr -e 1000 -c 1 -i 14 -a 1 -x {0.0 1.0 14 ------- null}
+ -t 0.1 -s 0 -d 1 -p cbr -e 1000 -c 1 -i 15 -a 1 -x {0.0 1.0 15 ------- null}
+ -t 0.1 -s 0 -d 1 -p cbr -e 1000 -c 1 -i 16 -a 1 -x {0.0 1.0 16 ------- null}
+ -t 0.1 -s 0 -d 1 -p cbr -e 1000 -c 1 -i 17 -a 1 -x {0.0 1.0 17 ------- null}
+ -t 0.1 -s 0 -d 1 -p cbr -e 1000 -c 1 -i 18 -a 1 -x {0.0 1.0 18 ------- null}
+ -t 0.1 -s 0 -d 1 -p cbr -e 1000 -c 1 -i 19 -a 1 -x {0.0 1.0 19 ------- null}
+ -t 0.1 -s 0 -d 1 -p cbr -e 1000 -c 1 -i 20 -a 1 -x {0.0 1.0 20 ------- null}
+ -t 0.1 -s 0 -d 1 -p cbr -e 1000 -c 1 -i 21 -a 1 -x {0.0 1.0 21 ------- null}
+ -t 0.1 -s 0 -d 1 -p cbr -e 1000 -c 1 -i 22 -a 1 -x {0.0 1.0 22 ------- null}
+ -t 0.1 -s 0 -d 1 -p cbr -e 1000 -c 1 -i 23 -a 1 -x {0.0 1.0 23 ------- null}
+ -t 0.1 -s 0 -d 1 -p cbr -e 1000 -c 1 -i 24 -a 1 -x {0.0 1.0 24 ------- null}
+ -t 0.1 -s 0 -d 1 -p cbr -e 1000 -c 1 -i 25 -a 1 -x {0.0 1.0 25 ------- null}
+ -t 0.1 -s 0 -d 1 -p cbr -e 1000 -c 1 -i 26 -a 1 -x {0.0 1.0 26 ------- null}
+ -t 0.1 -s 0 -d 1 -p cbr -e 1000 -c 1 -i 27 -a 1 -x {0.0 1.0 27 ------- null}
+ -t 0.1 -s 0 -d 1 -p cbr -e 1000 -c 1 -i 28 -a 1 -x {0.0 1.0 28 ------- null}
+ -t 0.1 -s 0 -d 1 -p cbr -e 1000 -c 1 -i 29 -a 1 -x {0.0 1.0 29 ------- null}
+ -t 0.1 -s 0 -d 1 -p cbr -e 1000 -c 1 -i 30 -a 1 -x {0.0 1.0 30 ------- null}
+ -t 0.1 -s 0 -d 1 -p cbr -e 1000 -c 1 -i 31 -a 1 -x {0.0 1.0 31 ------- null}
+ -t 0.1 -s 0 -d 1 -p cbr -e 1000 -c 1 -i 32 -a 1 -x {0.0 1.0 32 ------- null}
+ -t 0.1 -s 0 -d 1 -p cbr -e 1000 -c 1 -i 33 -a 1 -x {0.0 1.0 33 ------- null}
+ -t 0.1 -s 0 -d 1 -p cbr -e 1000 -c 1 -i 34 -a 1 -x {0.0 1.0 34 ------- null}
+ -t 0.1 -s 0 -d 1 -p cbr -e 1000 -c 1 -i 35 -a 1 -x {0.0 1.0 35 ------- null}
+ -t 0.1 -s 0 -d 1 -p cbr -e 1000 -c 1 -i 36 -a 1 -x {0.0 1.0 36 ------- null}
+ -t 0.1 -s 0 -d 1 -p cbr -e 1000 -c 1 -i 37 -a 1 -x {0.0 1.0 37 ------- null}
+ -t 0.1 -s 0 -d 1 -p cbr -e 1000 -c 1 -i 38 -a 1 -x {0.0 1.0 38 ------- null}
+ -t 0.1 -s 0 -d 1 -p cbr -e 1000 -c 1 -i 39 -a 1 -x {0.0 1.0 39 ------- null}
+ -t 0.1 -s 0 -d 1 -p cbr -e 1000 -c 1 -i 40 -a 1 -x {0.0 1.0 40 ------- null}
+ -t 0.1 -s 0 -d 1 -p cbr -e 1000 -c 1 -i 41 -a 1 -x {0.0 1.0 41 ------- null}
+ -t 0.1 -s 0 -d 1 -p cbr -e 1000 -c 1 -i 42 -a 1 -x {0.0 1.0 42 ------- null}
+ -t 0.1 -s 0 -d 1 -p cbr -e 1000 -c 1 -i 43 -a 1 -x {0.0 1.0 43 ------- null}
+ -t 0.1 -s 0 -d 1 -p cbr -e 1000 -c 1 -i 44 -a 1 -x {0.0 1.0 44 ------- null}
+ -t 0.1 -s 0 -d 1 -p cbr -e 1000 -c 1 -i 45 -a 1 -x {0.0 1.0 45 ------- null}
+ -t 0.1 -s 0 -d 1 -p cbr -e 1000 -c 1 -i 46 -a 1 -x {0.0 1.0 46 ------- null}
+ -t 0.1 -s 0 -d 1 -p cbr -e 1000 -c 1 -i 47 -a 1 -x {0.0 1.0 47 ------- null}
+ -t 0.1 -s 0 -d 1 -p cbr -e 1000 -c 1 -i 48 -a 1 -x {0.0 1.0 48 ------- null}
+ -t 0.1 -s 0 -d 1 -p cbr -e 1000 -c 1 -i 49 -a 1 -x {0.0 1.0 49 ------- null}
+ -t 0.1 -s 0 -d 1 -p cbr -e 1000 -c 1 -i 50 -a 1 -x {0.0 1.0 50 ------- null}
d -t 0.1 -s 0 -d 1 -p cbr -e 1000 -c 1 -i 50 -a 1 -x {0.0 1.0 50 ------- null}
+ -t 0.1 -s 0 -d 1 -p cbr -e 1000 -c 1 -i 51 -a 1 -x {0.0 1.0 51 ------- null}
d -t 0.1 -s 0 -d 1 -p cbr -e 1000 -c 1 -i 51 -a 1 -x {0.0 1.0 51 ------- null}
+ -t 0.1 -s 0 -d 1 -p cbr -e 1000 -c 1 -i 52 -a 1 -x {0.0 1.0 52 ------- null}
d -t 0.1 -s 0 -d 1 -p cbr -e 1000 -c 1 -i 52 -a 1 -x {0.0 1.0 52 ------- null}
+ -t 0.1 -s 0 -d 1 -p cbr -e 1000 -c 1 -i 53 -a 1 -x {0.0 1.0 53 ------- null}
d -t 0.1 -s 0 -d 1 -p cbr -e 1000 -c 1 -i 53 -a 1 -x {0.0 1.0 53 ------- null}
+ -t 0.1 -s 0 -d 1 -p cbr -e 1000 -c 1 -i 54 -a 1 -x {0.0 1.0 54 ------- null}
d -t 0.1 -s 0 -d 1 -p cbr -e 1000 -c 1 -i 54 -a 1 -x {0.0 1.0 54 ------- null}
+ -t 0.1 -s 0 -d 1 -p cbr -e 1000 -c 1 -i 55 -a 1 -x {0.0 1.0 55 ------- null}
d -t 0.1 -s 0 -d 1 -p cbr -e 1000 -c 1 -i 55 -a 1 -x {0.0 1.0 55 ------- null}
+ -t 0.1 -s 0 -d 1 -p cbr -e 1000 -c 1 -i 56 -a 1 -x {0.0 1.0 56 ------- null}
d -t 0.1 -s 0 -d 1 -p cbr -e 1000 -c 1 -i 56 -a 1 -x {0.0 1.0 56 ------- null}
+ -t 0.1 -s 0 -d 1 -p cbr -e 1000 -c 1 -i 57 -a 1 -x {0.0 1.0 57 ------- null}
d -t 0.1 -s 0 -d 1 -p cbr -e 1000 -c 1 -i 57 -a 1 -x {0.0 1.0 57 ------- null}
+ -t 0.1 -s 0 -d 1 -p cbr -e 1000 -c 1 -i 58 -a 1 -x {0.0 1.0 58 ------- null}
d -t 0.1 -s 0 -d 1 -p cbr -e 1000 -c 1 -i 58 -a 1 -x {0.0 1.0 58 ------- null}
+ -t 0.1 -s 0 -d 1 -p cbr -e 1000 -c 1 -i 59 -a 1 -x {0.0 1.0 59 ------- null}
d -t 0.1 -s 0 -d 1 -p cbr -e 1000 -c 1 -i 59 -a 1 -x {0.0 1.0 59 ------- null}
+ -t 0.1 -s 0 -d 1 -p cbr -e 1000 -c 1 -i 60 -a 1 -x {0.0 1.0 60 ------- null}
d -t 0.1 -s 0 -d 1 -p cbr -e 1000 -c 1 -i 60 -a 1 -x {0.0 1.0 60 ------- null}
+ -t 0.1 -s 0 -d 1 -p cbr -e 1000 -c 1 -i 61 -a 1 -x {0.0 1.0 61 ------- null}
d -t 0.1 -s 0 -d 1 -p cbr -e 1000 -c 1 -i 61 -a 1 -x {0.0 1.0 61 ------- null}
+ -t 0.1 -s 0 -d 1 -p cbr -e 1000 -c 1 -i 62 -a 1 -x {0.0 1.0 62 ------- null}
d -t 0.1 -s 0 -d 1 -p cbr -e 1000 -c 1 -i 62 -a 1 -x {0.0 1.0 62 ------- null}
+ -t 0.1 -s 0 -d 1 -p cbr -e 1000 -c 1 -i 63 -a 1 -x {0.0 1.0 63 ------- null}
d -t 0.1 -s 0 -d 1 -p cbr -e 1000 -c 1 -i 63 -a 1 -x {0.0 1.0 63 ------- null}
+ -t 0.1 -s 0 -d 1 -p cbr -e 1000 -c 1 -i 64 -a 1 -x {0.0 1.0 64 ------- null}
d -t 0.1 -s 0 -d 1 -p cbr -e 1000 -c 1 -i 64 -a 1 -x {0.0 1.0 64 ------- null}
+ -t 0.1 -s 0 -d 1 -p cbr -e 1000 -c 1 -i 65 -a 1 -x {0.0 1.0 65 ------- null}
d -t 0.1 -s 0 -d 1 -p cbr -e 1000 -c 1 -i 65 -a 1 -x {0.0 1.0 65 ------- null}
+ -t 0.1 -s 0 -d 1 -p cbr -e 1000 -c 1 -i 66 -a 1 -x {0.0 1.0 66 ------- null}
d -t 0.1 -s 0 -d 1 -p cbr -e 1000 -c 1 -i 66 -a 1 -x {0.0 1.0 66 ------- null}
+ -t 0.1 -s 0 -d 1 -p cbr -e 1000 -c 1 -i 67 -a 1 -x {0.0 1.0 67 ------- null}
d -t 0.1 -s 0 -d 1 -p cbr -e 1000 -c 1 -i 67 -a 1 -x {0.0 1.0 67 ------- null}
+ -t 0.1 -s 0 -d 1 -p cbr -e 1000 -c 1 -i 68 -a 1 -x {0.0 1.0 68 ------- null}
d -t 0.1 -s 0 -d 1 -p cbr -e 1000 -c 1 -i 68 -a 1 -x {0.0 1.0 68 ------- null}
+ -t 0.1 -s 0 -d 1 -p cbr -e 1000 -c 1 -i 69 -a 1 -x {0.0 1.0 69 ------- null}
d -t 0.1 -s 0 -d 1 -p cbr -e 1000 -c 1 -i 69 -a 1 -x {0.0 1.0 69 ------- null}
+ -t 0.1 -s 0 -d 1 -p cbr -e 1000 -c 1 -i 70 -a 1 -x {0.0 1.0 70 ------- null}
d -t 0.1 -s 0 -d 1 -p cbr -e 1000 -c 1 -i 70 -a 1 -x {0.0 1.0 70 ------- null}
+ -t 0.1 -s 0 -d 1 -p cbr -e 1000 -c 1 -i 71 -a 1 -x {0.0 1.0 71 ------- null}
d -t 0.1 -s 0 -d 1 -p cbr -e 1000 -c 1 -i 71 -a 1 -x {0.0 1.0 71 ------- null}
+ -t 0.1 -s 0 -d 1 -p cbr -e 1000 -c 1 -i 72 -a 1 -x {0.0 1.0 72 ------- null}
d -t 0.1 -s 0 -d 1 -p cbr -e 1000 -c 1 -i 72 -a 1 -x {0.0 1.0 72 ------- null}
+ -t 0.1 -s 0 -d 1 -p cbr -e 1000 -c 1 -i 73 -a 1 -x {0.0 1.0 73 ------- null}
d -t 0.1 -s 0 -d 1 -p cbr -e 1000 -c 1 -i 73 -a 1 -x {0.0 1.0 73 ------- null}
+ -t 0.1 -s 0 -d 1 -p cbr -e 1000 -c 1 -i 74 -a 1 -x {0.0 1.0 74 ------- null}
d -t 0.1 -s 0 -d 1 -p cbr -e 1000 -c 1 -i 74 -a 1 -x {0.0 1.0 74 ------- null}
+ -t 0.1 -s 0 -d 1 -p cbr -e 1000 -c 1 -i 75 -a 1 -x {0.0 1.0 75 ------- null}
d -t 0.1 -s 0 -d 1 -p cbr -e 1000 -c 1 -i 75 -a 1 -x {0.0 1.0 75 ------- null}
+ -t 0.1 -s 0 -d 1 -p cbr -e 1000 -c 1 -i 76 -a 1 -x {0.0 1.0 76 ------- null}
d -t 0.1 -s 0 -d 1 -p cbr -e 1000 -c 1 -i 76 -a 1 -x {0.0 1.0 76 ------- null}
+ -t 0.1 -s 0 -d 1 -p cbr -e 1000 -c 1 -i 77 -a 1 -x {0.0 1.0 77 ------- null}
d -t 0.1 -s 0 -d 1 -p cbr -e 1000 -c 1 -i 77 -a 1 -x {0.0 1.0 77 ------- null}
+ -t 0.1 -s 0 -d 1 -p cbr -e 1000 -c 1 -i 78 -a 1 -x {0.0 1.0 78 ------- null}
d -t 0.1 -s 0 -d 1 -p cbr -e 1000 -c 1 -i 78 -a 1 -x {0.0 1.0 78 ------- null}
+ -t 0.1 -s 0 -d 1 -p cbr -e 1000 -c 1 -i 79 -a 1 -x {0.0 1.0 79 ------- null}
d -t 0.1 -s 0 -d 1 -p cbr -e 1000 -c 1 -i 79 -a 1 -x {0.0 1.0 79 ------- null}
+ -t 0.1 -s 0 -d 1 -p cbr -e 1000 -c 1 -i 80 -a 1 -x {0.0 1.0 80 ------- null}
d -t 0.1 -s 0 -d 1 -p cbr -e 1000 -c 1 -i 80 -a 1 -x {0.0 1.0 80 ------- null}
+ -t 0.1 -s 0 -d 1 -p cbr -e 1000 -c 1 -i 81 -a 1 -x {0.0 1.0 81 ------- null}
d -t 0.1 -s 0 -d 1 -p cbr -e 1000 -c 1 -i 81 -a 1 -x {0.0 1.0 81 ------- null}
+ -t 0.1 -s 0 -d 1 -p cbr -e 1000 -c 1 -i 82 -a 1 -x {0.0 1.0 82 ------- null}
d -t 0.1 -s 0 -d 1 -p cbr -e 1000 -c 1 -i 82 -a 1 -x {0.0 1.0 82 ------- null}
+ -t 0.1 -s 0 -d 1 -p cbr -e 1000 -c 1 -i 83 -a 1 -x {0.0 1.0 83 ------- null}
d -t 0.1 -s 0 -d 1 -p cbr -e 1000 -c 1 -i 83 -a 1 -x {0.0 1.0 83 ------- null}
+ -t 0.1 -s 0 -d 1 -p cbr -e 1000 -c 1 -i 84 -a 1 -x {0.0 1.0 84 ------- null}
d -t 0.1 -s 0 -d 1 -p cbr -e 1000 -c 1 -i 84 -a 1 -x {0.0 1.0 84 ------- null}
+ -t 0.1 -s 0 -d 1 -p cbr -e 1000 -c 1 -i 85 -a 1 -x {0.0 1.0 85 ------- null}
d -t 0.1 -s 0 -d 1 -p cbr -e 1000 -c 1 -i 85 -a 1 -x {0.0 1.0 85 ------- null}
+ -t 0.1 -s 0 -d 1 -p cbr -e 1000 -c 1 -i 86 -a 1 -x {0.0 1.0 86 ------- null}
d -t 0.1 -s 0 -d 1 -p cbr -e 1000 -c 1 -i 86 -a 1 -x {0.0 1.0 86 ------- null}
+ -t 0.1 -s 0 -d 1 -p cbr -e 1000 -c 1 -i 87 -a 1 -x {0.0 1.0 87 ------- null}
d -t 0.1 -s 0 -d 1 -p cbr -e 1000 -c 1 -i 87 -a 1 -x {0.0 1.0 87 ------- null}
+ -t 0.1 -s 0 -d 1 -p cbr -e 1000 -c 1 -i 88 -a 1 -x {0.0 1.0 88 ------- null}
d -t 0.1 -s 0 -d 1 -p cbr -e 1000 -c 1 -i 88 -a 1 -x {0.0 1.0 88 ------- null}
+ -t 0.1 -s 0 -d 1 -p cbr -e 1000 -c 1 -i 89 -a 1 -x {0.0 1.0 89 ------- null}
d -t 0.1 -s 0 -d 1 -p cbr -e 1000 -c 1 -i 89 -a 1 -x {0.0 1.0 89 ------- null}
+ -t 0.1 -s 0 -d 1 -p cbr -e 1000 -c 1 -i 90 -a 1 -x {0.0 1.0 90 ------- null}
d -t 0.1 -s 0 -d 1 -p cbr -e 1000 -c 1 -i 90 -a 1 -x {0.0 1.0 90 ------- null}
+ -t 0.1 -s 0 -d 1 -p cbr -e 1000 -c 1 -i 91 -a 1 -x {0.0 1.0 91 ------- null}
d -t 0.1 -s 0 -d 1 -p cbr -e 1000 -c 1 -i 91 -a 1 -x {0.0 1.0 91 ------- null}
+ -t 0.1 -s 0 -d 1 -p cbr -e 1000 -c 1 -i 92 -a 1 -x {0.0 1.0 92 ------- null}
d -t 0.1 -s 0 -d 1 -p cbr -e 1000 -c 1 -i 92 -a 1 -x {0.0 1.0 92 ------- null}
+ -t 0.1 -s 0 -d 1 -p cbr -e 1000 -c 1 -i 93 -a 1 -x {0.0 1.0 93 ------- null}
d -t 0.1 -s 0 -d 1 -p cbr -e 1000 -c 1 -i 93 -a 1 -x {0.0 1.0 93 ------- null}
+ -t 0.1 -s 0 -d 1 -p cbr -e 1000 -c 1 -i 94 -a 1 -x {0.0 1.0 94 ------- null}
d -t 0.1 -s 0 -d 1 -p cbr -e 1000 -c 1 -i 94 -a 1 -x {0.0 1.0 94 ------- null}
+ -t 0.1 -s 0 -d 1 -p cbr -e 1000 -c 1 -i 95 -a 1 -x {0.0 1.0 95 ------- null}
d -t 0.1 -s 0 -d 1 -p cbr -e 1000 -c 1 -i 95 -a 1 -x {0.0 1.0 95 ------- null}
+ -t 0.1 -s 0 -d 1 -p cbr -e 1000 -c 1 -i 96 -a 1 -x {0.0 1.0 96 ------- null}
d -t 0.1 -s 0 -d 1 -p cbr -e 1000 -c 1 -i 96 -a 1 -x {0.0 1.0 96 ------- null}
+ -t 0.1 -s 0 -d 1 -p cbr -e 1000 -c 1 -i 97 -a 1 -x {0.0 1.0 97 ------- null}
d -t 0.1 -s 0 -d 1 -p cbr -e 1000 -c 1 -i 97 -a 1 -x {0.0 1.0 97 ------- null}
+ -t 0.1 -s 0 -d 1 -p cbr -e 1000 -c 1 -i 98 -a 1 -x {0.0 1.0 98 ------- null}
d -t 0.1 -s 0 -d 1 -p cbr -e 1000 -c 1 -i 98 -a 1 -x {0.0 1.0 98 ------- null}
+ -t 0.1 -s 0 -d 1 -p cbr -e 1000 -c 1 -i 99 -a 1 -x {0.0 1.0 99 ------- null}
d -t 0.1 -s 0 -d 1 -p cbr -e 1000 -c 1 -i 99 -a 1 -x {0.0 1.0 99 ------- null}
+ -t 0.1 -s 0 -d 1 -p cbr -e 1000 -c 1 -i 100 -a 1 -x {0.0 1.0 100 ------- null}
d -t 0.1 -s 0 -d 1 -p cbr -e 1000 -c 1 -i 100 -a 1 -x {0.0 1.0 100 ------- null}
+ -t 0.1 -s 0 -d 1 -p cbr -e 1000 -c 1 -i 101 -a 1 -x {0.0 1.0 101 ------- null}
d -t 0.1 -s 0 -d 1 -p cbr -e 1000 -c 1 -i 101 -a 1 -x {0.0 1.0 101 ------- null}
+ -t 0.1 -s 0 -d 1 -p cbr -e 1000 -c 1 -i 102 -a 1 -x {0.0 1.0 102 ------- null}
d -t 0.1 -s 0 -d 1 -p cbr -e 1000 -c 1 -i 102 -a 1 -x {0.0 1.0 102 ------- null}
+ -t 0.1 -s 0 -d 1 -p cbr -e 1000 -c 1 -i 103 -a 1 -x {0.0 1.0 103 ------- null}
d -t 0.1 -s 0 -d 1 -p cbr -e 1000 -c 1 -i 103 -a 1 -x {0.0 1.0 103 ------- null}
+ -t 0.1 -s 0 -d 1 -p cbr -e 1000 -c 1 -i 104 -a 1 -x {0.0 1.0 104 ------- null}
d -t 0.1 -s 0 -d 1 -p cbr -e 1000 -c 1 -i 104 -a 1 -x {0.0 1.0 104 ------- null}
+ -t 0.1 -s 0 -d 1 -p cbr -e 1000 -c 1 -i 105 -a 1 -x {0.0 1.0 105 ------- null}
d -t 0.1 -s 0 -d 1 -p cbr -e 1000 -c 1 -i 105 -a 1 -x {0.0 1.0 105 ------- null}
+ -t 0.1 -s 0 -d 1 -p cbr -e 1000 -c 1 -i 106 -a 1 -x {0.0 1.0 106 ------- null}
d -t 0.1 -s 0 -d 1 -p cbr -e 1000 -c 1 -i 106 -a 1 -x {0.0 1.0 106 ------- null}
+ -t 0.1 -s 0 -d 1 -p cbr -e 1000 -c 1 -i 107 -a 1 -x {0.0 1.0 107 ------- null}
d -t 0.1 -s 0 -d 1 -p cbr -e 1000 -c 1 -i 107 -a 1 -x {0.0 1.0 107 ------- null}
+ -t 0.1 -s 0 -d 1 -p cbr -e 1000 -c 1 -i 108 -a 1 -x {0.0 1.0 108 ------- null}
d -t 0.1 -s 0 -d 1 -p cbr -e 1000 -c 1 -i 108 -a 1 -x {0.0 1.0 108 ------- null}
+ -t 0.1 -s 0 -d 1 -p cbr -e 1000 -c 1 -i 109 -a 1 -x {0.0 1.0 109 ------- null}
d -t 0.1 -s 0 -d 1 -p cbr -e 1000 -c 1 -i 109 -a 1 -x {0.0 1.0 109 ------- null}
+ -t 0.1 -s 0 -d 1 -p cbr -e 1000 -c 1 -i 110 -a 1 -x {0.0 1.0 110 ------- null}
d -t 0.1 -s 0 -d 1 -p cbr -e 1000 -c 1 -i 110 -a 1 -x {0.0 1.0 110 ------- null}
+ -t 0.1 -s 0 -d 1 -p cbr -e 1000 -c 1 -i 111 -a 1 -x {0.0 1.0 111 ------- null}
d -t 0.1 -s 0 -d 1 -p cbr -e 1000 -c 1 -i 111 -a 1 -x {0.0 1.0 111 ------- null}
+ -t 0.1 -s 0 -d 1 -p cbr -e 1000 -c 1 -i 112 -a 1 -x {0.0 1.0 112 ------- null}
d -t 0.1 -s 0 -d 1 -p cbr -e 1000 -c 1 -i 112 -a 1 -x {0.0 1.0 112 ------- null}
+ -t 0.1 -s 0 -d 1 -p cbr -e 1000 -c 1 -i 113 -a 1 -x {0.0 1.0 113 ------- null}
d -t 0.1 -s 0 -d 1 -p cbr -e 1000 -c 1 -i 113 -a 1 -x {0.0 1.0 113 ------- null}
+ -t 0.1 -s 0 -d 1 -p cbr -e 1000 -c 1 -i 114 -a 1 -x {0.0 1.0 114 ------- null}
d -t 0.1 -s 0 -d 1 -p cbr -e 1000 -c 1 -i 114 -a 1 -x {0.0 1.0 114 ------- null}
+ -t 0.1 -s 0 -d 1 -p cbr -e 1000 -c 1 -i 115 -a 1 -x {0.0 1.0 115 ------- null}
d -t 0.1 -s 0 -d 1 -p cbr -e 1000 -c 1 -i 115 -a 1 -x {0.0 1.0 115 ------- null}
+ -t 0.1 -s 0 -d 1 -p cbr -e 1000 -c 1 -i 116 -a 1 -x {0.0 1.0 116 ------- null}
d -t 0.1 -s 0 -d 1 -p cbr -e 1000 -c 1 -i 116 -a 1 -x {0.0 1.0 116 ------- null}
+ -t 0.1 -s 0 -d 1 -p cbr -e 1000 -c 1 -i 117 -a 1 -x {0.0 1.0 117 ------- null}
d -t 0.1 -s 0 -d 1 -p cbr -e 1000 -c 1 -i 117 -a 1 -x {0.0 1.0 117 ------- null}
+ -t 0.1 -s 0 -d 1 -p cbr -e 1000 -c 1 -i 118 -a 1 -x {0.0 1.0 118 ------- null}
d -t 0.1 -s 0 -d 1 -p cbr -e 1000 -c 1 -i 118 -a 1 -x {0.0 1.0 118 ------- null}
+ -t 0.1 -s 0 -d 1 -p cbr -e 1000 -c 1 -i 119 -a 1 -x {0.0 1.0 119 ------- null}
d -t 0.1 -s 0 -d 1 -p cbr -e 1000 -c 1 -i 119 -a 1 -x {0.0 1.0 119 ------- null}
+ -t 0.1 -s 0 -d 1 -p cbr -e 1000 -c 1 -i 120 -a 1 -x {0.0 1.0 120 ------- null}
d -t 0.1 -s 0 -d 1 -p cbr -e 1000 -c 1 -i 120 -a 1 -x {0.0 1.0 120 ------- null}
+ -t 0.1 -s 0 -d 1 -p cbr -e 1000 -c 1 -i 121 -a 1 -x {0.0 1.0 121 ------- null}
d -t 0.1 -s 0 -d 1 -p cbr -e 1000 -c 1 -i 121 -a 1 -x {0.0 1.0 121 ------- null}
+ -t 0.1 -s 0 -d 1 -p cbr -e 1000 -c 1 -i 122 -a 1 -x {0.0 1.0 122 ------- null}
d -t 0.1 -s 0 -d 1 -p cbr -e 1000 -c 1 -i 122 -a 1 -x {0.0 1.0 122 ------- null}
+ -t 0.1 -s 0 -d 1 -p cbr -e 1000 -c 1 -i 123 -a 1 -x {0.0 1.0 123 ------- null}
d -t 0.1 -s 0 -d 1 -p cbr -e 1000 -c 1 -i 123 -a 1 -x {0.0 1.0 123 ------- null}
+ -t 0.1 -s 0 -d 1 -p cbr -e 1000 -c 1 -i 124 -a 1 -x {0.0 1.0 124 ------- null}
d -t 0.1 -s 0 -d 1 -p cbr -e 1000 -c 1 -i 124 -a 1 -x {0.0 1.0 124 ------- null}
+ -t 0.1 -s 0 -d 1 -p cbr -e 1000 -c 1 -i 125 -a 1 -x {0.0 1.0 125 ------- null}
d -t 0.1 -s 0 -d 1 -p cbr -e 1000 -c 1 -i 125 -a 1 -x {0.0 1.0 125 ------- null}
+ -t 0.1 -s 0 -d 1 -p cbr -e 1000 -c 1 -i 126 -a 1 -x {0.0 1.0 126 ------- null}
d -t 0.1 -s 0 -d 1 -p cbr -e 1000 -c 1 -i 126 -a 1 -x {0.0 1.0 126 ------- null}
+ -t 0.1 -s 0 -d 1 -p cbr -e 1000 -c 1 -i 127 -a 1 -x {0.0 1.0 127 ------- null}
d -t 0.1 -s 0 -d 1 -p cbr -e 1000 -c 1 -i 127 -a 1 -x {0.0 1.0 127 ------- null}
+ -t 0.1 -s 0 -d 1 -p cbr -e 1000 -c 1 -i 128 -a 1 -x {0.0 1.0 128 ------- null}
d -t 0.1 -s 0 -d 1 -p cbr -e 1000 -c 1 -i 128 -a 1 -x {0.0 1.0 128 ------- null}
+ -t 0.1 -s 0 -d 1 -p cbr -e 1000 -c 1 -i 129 -a 1 -x {0.0 1.0 129 ------- null}
d -t 0.1 -s 0 -d 1 -p cbr -e 1000 -c 1 -i 129 -a 1 -x {0.0 1.0 129 ------- null}
+ -t 0.1 -s 0 -d 1 -p cbr -e 1000 -c 1 -i 130 -a 1 -x {0.0 1.0 130 ------- null}
d -t 0.1 -s 0 -d 1 -p cbr -e 1000 -c 1 -i 130 -a 1 -x {0.0 1.0 130 ------- null}
+ -t 0.1 -s 0 -d 1 -p cbr -e 1000 -c 1 -i 131 -a 1 -x {0.0 1.0 131 ------- null}
d -t 0.1 -s 0 -d 1 -p cbr -e 1000 -c 1 -i 131 -a 1 -x {0.0 1.0 131 ------- null}
+ -t 0.1 -s 0 -d 1 -p cbr -e 1000 -c 1 -i 132 -a 1 -x {0.0 1.0 132 ------- null}
d -t 0.1 -s 0 -d 1 -p cbr -e 1000 -c 1 -i 132 -a 1 -x {0.0 1.0 132 ------- null}
+ -t 0.1 -s 0 -d 1 -p cbr -e 1000 -c 1 -i 133 -a 1 -x {0.0 1.0 133 ------- null}
d -t 0.1 -s 0 -d 1 -p cbr -e 1000 -c 1 -i 133 -a 1 -x {0.0 1.0 133 ------- null}
+ -t 0.1 -s 0 -d 1 -p cbr -e 1000 -c 1 -i 134 -a 1 -x {0.0 1.0 134 ------- null}
d -t 0.1 -s 0 -d 1 -p cbr -e 1000 -c 1 -i 134 -a 1 -x {0.0 1.0 134 ------- null}
+ -t 0.1 -s 0 -d 1 -p cbr -e 1000 -c 1 -i 135 -a 1 -x {0.0 1.0 135 ------- null}
d -t 0.1 -s 0 -d 1 -p cbr -e 1000 -c 1 -i 135 -a 1 -x {0.0 1.0 135 ------- null}
+ -t 0.1 -s 0 -d 1 -p cbr -e 1000 -c 1 -i 136 -a 1 -x {0.0 1.0 136 ------- null}
d -t 0.1 -s 0 -d 1 -p cbr -e 1000 -c 1 -i 136 -a 1 -x {0.0 1.0 136 ------- null}
+ -t 0.1 -s 0 -d 1 -p cbr -e 1000 -c 1 -i 137 -a 1 -x {0.0 1.0 137 ------- null}
d -t 0.1 -s 0 -d 1 -p cbr -e 1000 -c 1 -i 137 -a 1 -x {0.0 1.0 137 ------- null}
+ -t 0.1 -s 0 -d 1 -p cbr -e 1000 -c 1 -i 138 -a 1 -x {0.0 1.0 138 ------- null}
d -t 0.1 -s 0 -d 1 -p cbr -e 1000 -c 1 -i 138 -a 1 -x {0.0 1.0 138 ------- null}
+ -t 0.1 -s 0 -d 1 -p cbr -e 1000 -c 1 -i 139 -a 1 -x {0.0 1.0 139 ------- null}
d -t 0.1 -s 0 -d 1 -p cbr -e 1000 -c 1 -i 139 -a 1 -x {0.0 1.0 139 ------- null}
+ -t 0.1 -s 0 -d 1 -p cbr -e 1000 -c 1 -i 140 -a 1 -x {0.0 1.0 140 ------- null}
d -t 0.1 -s 0 -d 1 -p cbr -e 1000 -c 1 -i 140 -a 1 -x {0.0 1.0 140 ------- null}
+ -t 0.1 -s 0 -d 1 -p cbr -e 1000 -c 1 -i 141 -a 1 -x {0.0 1.0 141 ------- null}
d -t 0.1 -s 0 -d 1 -p cbr -e 1000 -c 1 -i 141 -a 1 -x {0.0 1.0 141 ------- null}
+ -t 0.1 -s 0 -d 1 -p cbr -e 1000 -c 1 -i 142 -a 1 -x {0.0 1.0 142 ------- null}
d -t 0.1 -s 0 -d 1 -p cbr -e 1000 -c 1 -i 142 -a 1 -x {0.0 1.0 142 ------- null}
+ -t 0.1 -s 0 -d 1 -p cbr -e 1000 -c 1 -i 143 -a 1 -x {0.0 1.0 143 ------- null}
d -t 0.1 -s 0 -d 1 -p cbr -e 1000 -c 1 -i 143 -a 1 -x {0.0 1.0 143 ------- null}
+ -t 0.1 -s 0 -d 1 -p cbr -e 1000 -c 1 -i 144 -a 1 -x {0.0 1.0 144 ------- null}
d -t 0.1 -s 0 -d 1 -p cbr -e 1000 -c 1 -i 144 -a 1 -x {0.0 1.0 144 ------- null}
+ -t 0.1 -s 0 -d 1 -p cbr -e 1000 -c 1 -i 145 -a 1 -x {0.0 1.0 145 ------- null}
d -t 0.1 -s 0 -d 1 -p cbr -e 1000 -c 1 -i 145 -a 1 -x {0.0 1.0 145 ------- null}
+ -t 0.1 -s 0 -d 1 -p cbr -e 1000 -c 1 -i 146 -a 1 -x {0.0 1.0 146 ------- null}
d -t 0.1 -s 0 -d 1 -p cbr -e 1000 -c 1 -i 146 -a 1 -x {0.0 1.0 146 ------- null}
+ -t 0.1 -s 0 -d 1 -p cbr -e 1000 -c 1 -i 147 -a 1 -x {0.0 1.0 147 ------- null}
d -t 0.1 -s 0 -d 1 -p cbr -e 1000 -c 1 -i 147 -a 1 -x {0.0 1.0 147 ------- null}
+ -t 0.1 -s 0 -d 1 -p cbr -e 1000 -c 1 -i 148 -a 1 -x {0.0 1.0 148 ------- null}
d -t 0.1 -s 0 -d 1 -p cbr -e 1000 -c 1 -i 148 -a 1 -x {0.0 1.0 148 ------- null}
+ -t 0.1 -s 0 -d 1 -p cbr -e 1000 -c 1 -i 149 -a 1 -x {0.0 1.0 149 ------- null}
d -t 0.1 -s 0 -d 1 -p cbr -e 1000 -c 1 -i 149 -a 1 -x {0.0 1.0 149 ------- null}
+ -t 0.1 -s 0 -d 1 -p cbr -e 1000 -c 1 -i 150 -a 1 -x {0.0 1.0 150 ------- null}
d -t 0.1 -s 0 -d 1 -p cbr -e 1000 -c 1 -i 150 -a 1 -x {0.0 1.0 150 ------- null}
+ -t 0.1 -s 0 -d 1 -p cbr -e 1000 -c 1 -i 151 -a 1 -x {0.0 1.0 151 ------- null}
d -t 0.1 -s 0 -d 1 -p cbr -e 1000 -c 1 -i 151 -a 1 -x {0.0 1.0 151 ------- null}
+ -t 0.1 -s 0 -d 1 -p cbr -e 1000 -c 1 -i 152 -a 1 -x {0.0 1.0 152 ------- null}
d -t 0.1 -s 0 -d 1 -p cbr -e 1000 -c 1 -i 152 -a 1 -x {0.0 1.0 152 ------- null}
+ -t 0.1 -s 0 -d 1 -p cbr -e 1000 -c 1 -i 153 -a 1 -x {0.0 1.0 153 ------- null}
d -t 0.1 -s 0 -d 1 -p cbr -e 1000 -c 1 -i 153 -a 1 -x {0.0 1.0 153 ------- null}
+ -t 0.1 -s 0 -d 1 -p cbr -e 1000 -c 1 -i 154 -a 1 -x {0.0 1.0 154 ------- null}
d -t 0.1 -s 0 -d 1 -p cbr -e 1000 -c 1 -i 154 -a 1 -x {0.0 1.0 154 ------- null}
+ -t 0.1 -s 0 -d 1 -p cbr -e 1000 -c 1 -i 155 -a 1 -x {0.0 1.0 155 ------- null}
d -t 0.1 -s 0 -d 1 -p cbr -e 1000 -c 1 -i 155 -a 1 -x {0.0 1.0 155 ------- null}
+ -t 0.1 -s 0 -d 1 -p cbr -e 1000 -c 1 -i 156 -a 1 -x {0.0 1.0 156 ------- null}
d -t 0.1 -s 0 -d 1 -p cbr -e 1000 -c 1 -i 156 -a 1 -x {0.0 1.0 156 ------- null}
+ -t 0.1 -s 0 -d 1 -p cbr -e 1000 -c 1 -i 157 -a 1 -x {0.0 1.0 157 ------- null}
d -t 0.1 -s 0 -d 1 -p cbr -e 1000 -c 1 -i 157 -a 1 -x {0.0 1.0 157 ------- null}
+ -t 0.1 -s 0 -d 1 -p cbr -e 1000 -c 1 -i 158 -a 1 -x {0.0 1.0 158 ------- null}
d -t 0.1 -s 0 -d 1 -p cbr -e 1000 -c 1 -i 158 -a 1 -x {0.0 1.0 158 ------- null}
+ -t 0.1 -s 0 -d 1 -p cbr -e 1000 -c 1 -i 159 -a 1 -x {0.0 1.0 159 ------- null}
d -t 0.1 -s 0 -d 1 -p cbr -e 1000 -c 1 -i 159 -a 1 -x {0.0 1.0 159 ------- null}
+ -t 0.1 -s 0 -d 1 -p cbr -e 1000 -c 1 -i 160 -a 1 -x {0.0 1.0 160 ------- null}
d -t 0.1 -s 0 -d 1 -p cbr -e 1000 -c 1 -i 160 -a 1 -x {0.0 1.0 160 ------- null}
+ -t 0.1 -s 0 -d 1 -p cbr -e 1000 -c 1 -i 161 -a 1 -x {0.0 1.0 161 ------- null}
d -t 0.1 -s 0 -d 1 -p cbr -e 1000 -c 1 -i 161 -a 1 -x {0.0 1.0 161 ------- null}
+ -t 0.1 -s 0 -d 1 -p cbr -e 1000 -c 1 -i 162 -a 1 -x {0.0 1.0 162 ------- null}
d -t 0.1 -s 0 -d 1 -p cbr -e 1000 -c 1 -i 162 -a 1 -x {0.0 1.0 162 ------- null}
+ -t 0.1 -s 0 -d 1 -p cbr -e 1000 -c 1 -i 163 -a 1 -x {0.0 1.0 163 ------- null}
d -t 0.1 -s 0 -d 1 -p cbr -e 1000 -c 1 -i 163 -a 1 -x {0.0 1.0 163 ------- null}
+ -t 0.1 -s 0 -d 1 -p cbr -e 1000 -c 1 -i 164 -a 1 -x {0.0 1.0 164 ------- null}
d -t 0.1 -s 0 -d 1 -p cbr -e 1000 -c 1 -i 164 -a 1 -x {0.0 1.0 164 ------- null}
+ -t 0.1 -s 0 -d 1 -p cbr -e 1000 -c 1 -i 165 -a 1 -x {0.0 1.0 165 ------- null}
d -t 0.1 -s 0 -d 1 -p cbr -e 1000 -c 1 -i 165 -a 1 -x {0.0 1.0 165 ------- null}
+ -t 0.1 -s 0 -d 1 -p cbr -e 1000 -c 1 -i 166 -a 1 -x {0.0 1.0 166 ------- null}
d -t 0.1 -s 0 -d 1 -p cbr -e 1000 -c 1 -i 166 -a 1 -x {0.0 1.0 166 ------- null}
+ -t 0.1 -s 0 -d 1 -p cbr -e 1000 -c 1 -i 167 -a 1 -x {0.0 1.0 167 ------- null}
d -t 0.1 -s 0 -d 1 -p cbr -e 1000 -c 1 -i 167 -a 1 -x {0.0 1.0 167 ------- null}
+ -t 0.1 -s 0 -d 1 -p cbr -e 1000 -c 1 -i 168 -a 1 -x {0.0 1.0 168 ------- null}
d -t 0.1 -s 0 -d 1 -p cbr -e 1000 -c 1 -i 168 -a 1 -x {0.0 1.0 168 ------- null}
+ -t 0.1 -s 0 -d 1 -p cbr -e 1000 -c 1 -i 169 -a 1 -x {0.0 1.0 169 ------- null}
d -t 0.1 -s 0 -d 1 -p cbr -e 1000 -c 1 -i 169 -a 1 -x {0.0 1.0 169 ------- null}
+ -t 0.1 -s 0 -d 1 -p cbr -e 1000 -c 1 -i 170 -a 1 -x {0.0 1.0 170 ------- null}
d -t 0.1 -s 0 -d 1 -p cbr -e 1000 -c 1 -i 170 -a 1 -x {0.0 1.0 170 ------- null}
+ -t 0.1 -s 0 -d 1 -p cbr -e 1000 -c 1 -i 171 -a 1 -x {0.0 1.0 171 ------- null}
d -t 0.1 -s 0 -d 1 -p cbr -e 1000 -c 1 -i 171 -a 1 -x {0.0 1.0 171 ------- null}
+ -t 0.1 -s 0 -d 1 -p cbr -e 1000 -c 1 -i 172 -a 1 -x {0.0 1.0 172 ------- null}
d -t 0.1 -s 0 -d 1 -p cbr -e 1000 -c 1 -i 172 -a 1 -x {0.0 1.0 172 ------- null}
+ -t 0.1 -s 0 -d 1 -p cbr -e 1000 -c 1 -i 173 -a 1 -x {0.0 1.0 173 ------- null}
d -t 0.1 -s 0 -d 1 -p cbr -e 1000 -c 1 -i 173 -a 1 -x {0.0 1.0 173 ------- null}
+ -t 0.1 -s 0 -d 1 -p cbr -e 1000 -c 1 -i 174 -a 1 -x {0.0 1.0 174 ------- null}
d -t 0.1 -s 0 -d 1 -p cbr -e 1000 -c 1 -i 174 -a 1 -x {0.0 1.0 174 ------- null}
+ -t 0.1 -s 0 -d 1 -p cbr -e 1000 -c 1 -i 175 -a 1 -x {0.0 1.0 175 ------- null}
d -t 0.1 -s 0 -d 1 -p cbr -e 1000 -c 1 -i 175 -a 1 -x {0.0 1.0 175 ------- null}
+ -t 0.1 -s 0 -d 1 -p cbr -e 1000 -c 1 -i 176 -a 1 -x {0.0 1.0 176 ------- null}
d -t 0.1 -s 0 -d 1 -p cbr -e 1000 -c 1 -i 176 -a 1 -x {0.0 1.0 176 ------- null}
+ -t 0.1 -s 0 -d 1 -p cbr -e 1000 -c 1 -i 177 -a 1 -x {0.0 1.0 177 ------- null}
d -t 0.1 -s 0 -d 1 -p cbr -e 1000 -c 1 -i 177 -a 1 -x {0.0 1.0 177 ------- null}
+ -t 0.1 -s 0 -d 1 -p cbr -e 1000 -c 1 -i 178 -a 1 -x {0.0 1.0 178 ------- null}
d -t 0.1 -s 0 -d 1 -p cbr -e 1000 -c 1 -i 178 -a 1 -x {0.0 1.0 178 ------- null}
+ -t 0.1 -s 0 -d 1 -p cbr -e 1000 -c 1 -i 179 -a 1 -x {0.0 1.0 179 ------- null}
d -t 0.1 -s 0 -d 1 -p cbr -e 1000 -c 1 -i 179 -a 1 -x {0.0 1.0 179 ------- null}
+ -t 0.1 -s 0 -d 1 -p cbr -e 1000 -c 1 -i 180 -a 1 -x {0.0 1.0 180 ------- null}
d -t 0.1 -s 0 -d 1 -p cbr -e 1000 -c 1 -i 180 -a 1 -x {0.0 1.0 180 ------- null}
+ -t 0.1 -s 0 -d 1 -p cbr -e 1000 -c 1 -i 181 -a 1 -x {0.0 1.0 181 ------- null}
d -t 0.1 -s 0 -d 1 -p cbr -e 1000 -c 1 -i 181 -a 1 -x {0.0 1.0 181 ------- null}
+ -t 0.1 -s 0 -d 1 -p cbr -e 1000 -c 1 -i 182 -a 1 -x {0.0 1.0 182 ------- null}
d -t 0.1 -s 0 -d 1 -p cbr -e 1000 -c 1 -i 182 -a 1 -x {0.0 1.0 182 ------- null}
+ -t 0.1 -s 0 -d 1 -p cbr -e 1000 -c 1 -i 183 -a 1 -x {0.0 1.0 183 ------- null}
d -t 0.1 -s 0 -d 1 -p cbr -e 1000 -c 1 -i 183 -a 1 -x {0.0 1.0 183 ------- null}
+ -t 0.1 -s 0 -d 1 -p cbr -e 1000 -c 1 -i 184 -a 1 -x {0.0 1.0 184 ------- null}
d -t 0.1 -s 0 -d 1 -p cbr -e 1000 -c 1 -i 184 -a 1 -x {0.0 1.0 184 ------- null}
+ -t 0.1 -s 0 -d 1 -p cbr -e 1000 -c 1 -i 185 -a 1 -x {0.0 1.0 185 ------- null}
d -t 0.1 -s 0 -d 1 -p cbr -e 1000 -c 1 -i 185 -a 1 -x {0.0 1.0 185 ------- null}
+ -t 0.1 -s 0 -d 1 -p cbr -e 1000 -c 1 -i 186 -a 1 -x {0.0 1.0 186 ------- null}
d -t 0.1 -s 0 -d 1 -p cbr -e 1000 -c 1 -i 186 -a 1 -x {0.0 1.0 186 ------- null}
+ -t 0.1 -s 0 -d 1 -p cbr -e 1000 -c 1 -i 187 -a 1 -x {0.0 1.0 187 ------- null}
d -t 0.1 -s 0 -d 1 -p cbr -e 1000 -c 1 -i 187 -a 1 -x {0.0 1.0 187 ------- null}
+ -t 0.1 -s 0 -d 1 -p cbr -e 1000 -c 1 -i 188 -a 1 -x {0.0 1.0 188 ------- null}
d -t 0.1 -s 0 -d 1 -p cbr -e 1000 -c 1 -i 188 -a 1 -x {0.0 1.0 188 ------- null}
+ -t 0.1 -s 0 -d 1 -p cbr -e 1000 -c 1 -i 189 -a 1 -x {0.0 1.0 189 ------- null}
d -t 0.1 -s 0 -d 1 -p cbr -e 1000 -c 1 -i 189 -a 1 -x {0.0 1.0 189 ------- null}
+ -t 0.1 -s 0 -d 1 -p cbr -e 1000 -c 1 -i 190 -a 1 -x {0.0 1.0 190 ------- null}
d -t 0.1 -s 0 -d 1 -p cbr -e 1000 -c 1 -i 190 -a 1 -x {0.0 1.0 190 ------- null}
+ -t 0.1 -s 0 -d 1 -p cbr -e 1000 -c 1 -i 191 -a 1 -x {0.0 1.0 191 ------- null}
d -t 0.1 -s 0 -d 1 -p cbr -e 1000 -c 1 -i 191 -a 1 -x {0.0 1.0 191 ------- null}
+ -t 0.1 -s 0 -d 1 -p cbr -e 1000 -c 1 -i 192 -a 1 -x {0.0 1.0 192 ------- null}
d -t 0.1 -s 0 -d 1 -p cbr -e 1000 -c 1 -i 192 -a 1 -x {0.0 1.0 192 ------- null}
+ -t 0.1 -s 0 -d 1 -p cbr -e 1000 -c 1 -i 193 -a 1 -x {0.0 1.0 193 ------- null}
d -t 0.1 -s 0 -d 1 -p cbr -e 1000 -c 1 -i 193 -a 1 -x {0.0 1.0 193 ------- null}
+ -t 0.1 -s 0 -d 1 -p cbr -e 1000 -c 1 -i 194 -a 1 -x {0.0 1.0 194 ------- null}
d -t 0.1 -s 0 -d 1 -p cbr -e 1000 -c 1 -i 194 -a 1 -x {0.0 1.0 194 ------- null}
+ -t 0.1 -s 0 -d 1 -p cbr -e 1000 -c 1 -i 195 -a 1 -x {0.0 1.0 195 ------- null}
d -t 0.1 -s 0 -d 1 -p cbr -e 1000 -c 1 -i 195 -a 1 -x {0.0 1.0 195 ------- null}
+ -t 0.1 -s 0 -d 1 -p cbr -e 1000 -c 1 -i 196 -a 1 -x {0.0 1.0 196 ------- null}
d -t 0.1 -s 0 -d 1 -p cbr -e 1000 -c 1 -i 196 -a 1 -x {0.0 1.0 196 ------- null}
+ -t 0.1 -s 0 -d 1 -p cbr -e 1000 -c 1 -i 197 -a 1 -x {0.0 1.0 197 ------- null}
d -t 0.1 -s 0 -d 1 -p cbr -e 1000 -c 1 -i 197 -a 1 -x {0.0 1.0 197 ------- null}
+ -t 0.1 -s 0 -d 1 -p cbr -e 1000 -c 1 -i 198 -a 1 -x {0.0 1.0 198 ------- null}
d -t 0.1 -s 0 -d 1 -p cbr -e 1000 -c 1 -i 198 -a 1 -x {0.0 1.0 198 ------- null}
+ -t 0.1 -s 0 -d 1 -p cbr -e 1000 -c 1 -i 199 -a 1 -x {0.0 1.0 199 ------- null}
d -t 0.1 -s 0 -d 1 -p cbr -e 1000 -c 1 -i 199 -a 1 -x {0.0 1.0 199 ------- null}
+ -t 0.1 -s 0 -d 1 -p cbr -e 1000 -c 1 -i 200 -a 1 -x {0.0 1.0 200 ------- null}
d -t 0.1 -s 0 -d 1 -p cbr -e 1000 -c 1 -i 200 -a 1 -x {0.0 1.0 200 ------- null}
+ -t 0.1 -s 0 -d 1 -p cbr -e 1000 -c 1 -i 201 -a 1 -x {0.0 1.0 201 ------- null}
d -t 0.1 -s 0 -d 1 -p cbr -e 1000 -c 1 -i 201 -a 1 -x {0.0 1.0 201 ------- null}
+ -t 0.1 -s 0 -d 1 -p cbr -e 1000 -c 1 -i 202 -a 1 -x {0.0 1.0 202 ------- null}
d -t 0.1 -s 0 -d 1 -p cbr -e 1000 -c 1 -i 202 -a 1 -x {0.0 1.0 202 ------- null}
+ -t 0.1 -s 0 -d 1 -p cbr -e 1000 -c 1 -i 203 -a 1 -x {0.0 1.0 203 ------- null}
d -t 0.1 -s 0 -d 1 -p cbr -e 1000 -c 1 -i 203 -a 1 -x {0.0 1.0 203 ------- null}
+ -t 0.1 -s 0 -d 1 -p cbr -e 1000 -c 1 -i 204 -a 1 -x {0.0 1.0 204 ------- null}
d -t 0.1 -s 0 -d 1 -p cbr -e 1000 -c 1 -i 204 -a 1 -x {0.0 1.0 204 ------- null}
+ -t 0.1 -s 0 -d 1 -p cbr -e 1000 -c 1 -i 205 -a 1 -x {0.0 1.0 205 ------- null}
d -t 0.1 -s 0 -d 1 -p cbr -e 1000 -c 1 -i 205 -a 1 -x {0.0 1.0 205 ------- null}
+ -t 0.1 -s 0 -d 1 -p cbr -e 1000 -c 1 -i 206 -a 1 -x {0.0 1.0 206 ------- null}
d -t 0.1 -s 0 -d 1 -p cbr -e 1000 -c 1 -i 206 -a 1 -x {0.0 1.0 206 ------- null}
+ -t 0.1 -s 0 -d 1 -p cbr -e 1000 -c 1 -i 207 -a 1 -x {0.0 1.0 207 ------- null}
d -t 0.1 -s 0 -d 1 -p cbr -e 1000 -c 1 -i 207 -a 1 -x {0.0 1.0 207 ------- null}
+ -t 0.1 -s 0 -d 1 -p cbr -e 1000 -c 1 -i 208 -a 1 -x {0.0 1.0 208 ------- null}
d -t 0.1 -s 0 -d 1 -p cbr -e 1000 -c 1 -i 208 -a 1 -x {0.0 1.0 208 ------- null}